<?xml version="1.0"?>
<VTKFile type="UnstructuredGrid" version="0.1" byte_order="BigEndian">
<UnstructuredGrid GhostLevel="0">
<Piece NumberOfPoints="40864" NumberOfCells="5108" ><Points>
<DataArray type="Float64" NumberOfComponents="3" format="ascii">
0	10000	1	0	10000	0	250	10000	1	250	10000	0	250	9750	1	250	9750	0	0	9750	1	0	9750	0	250	10000	1	250	10000	0	500	10000	1	500	10000	0	500	9750	1	500	9750	0	250	9750	1	250	9750	0	500	10000	1	500	10000	0	750	10000	1	750	10000	0	750	9750	1	750	9750	0	500	9750	1	500	9750	0	750	10000	1	750	10000	0	1000	10000	1	1000	10000	0	1000	9750	1	1000	9750	0	750	9750	1	750	9750	0	1000	10000	1	1000	10000	0	1250	10000	1	1250	10000	0	1250	9750	1	1250	9750	0	1000	9750	1	1000	9750	0	1250	10000	1	1250	10000	0	1500	10000	1	1500	10000	0	1500	9750	1	1500	9750	0	1250	9750	1	1250	9750	0	1500	10000	1	1500	10000	0	1750	10000	1	1750	10000	0	1750	9750	1	1750	9750	0	1500	9750	1	1500	9750	0	1750	10000	1	1750	10000	0	2000	10000	1	2000	10000	0	2000	9750	1	2000	9750	0	1750	9750	1	1750	9750	0	2000	10000	1	2000	10000	0	2250	10000	1	2250	10000	0	2250	9750	1	2250	9750	0	2000	9750	1	2000	9750	0	2250	10000	1	2250	10000	0	2500	10000	1	2500	10000	0	2500	9750	1	2500	9750	0	2250	9750	1	2250	9750	0	2500	10000	1	2500	10000	0	2750	10000	1	2750	10000	0	2750	9750	1	2750	9750	0	2500	9750	1	2500	9750	0	2750	10000	1	2750	10000	0	3000	10000	1	3000	10000	0	3000	9750	1	3000	9750	0	2750	9750	1	2750	9750	0	3000	10000	1	3000	10000	0	3125	10000	1	3125	10000	0	3125	9875	1	3125	9875	0	3000	9875	1	3000	9875	0	3125	10000	1	3125	10000	0	3250	10000	1	3250	10000	0	3250	9875	1	3250	9875	0	3125	9875	1	3125	9875	0	3125	9875	1	3125	9875	0	3250	9875	1	3250	9875	0	3250	9750	1	3250	9750	0	3125	9750	1	3125	9750	0	3000	9875	1	3000	9875	0	3125	9875	1	3125	9875	0	3125	9750	1	3125	9750	0	3000	9750	1	3000	9750	0	3250	10000	1	3250	10000	0	3312.5	10000	1	3312.5	10000	0	3312.5	9937.5	1	3312.5	9937.5	0	3250	9937.5	1	3250	9937.5	0	3312.5	10000	1	3312.5	10000	0	3343.75	10000	1	3343.75	10000	0	3343.75	9968.75	1	3343.75	9968.75	0	3312.5	9968.75	1	3312.5	9968.75	0	3343.75	10000	1	3343.75	10000	0	3359.38	10000	1	3359.38	10000	0	3359.38	9984.38	1	3359.38	9984.38	0	3343.75	9984.38	1	3343.75	9984.38	0	3359.38	10000	1	3359.38	10000	0	3375	10000	1	3375	10000	0	3375	9984.38	1	3375	9984.38	0	3359.38	9984.38	1	3359.38	9984.38	0	3359.38	9984.38	1	3359.38	9984.38	0	3375	9984.38	1	3375	9984.38	0	3375	9968.75	1	3375	9968.75	0	3359.38	9968.75	1	3359.38	9968.75	0	3343.75	9984.38	1	3343.75	9984.38	0	3359.38	9984.38	1	3359.38	9984.38	0	3359.38	9968.75	1	3359.38	9968.75	0	3343.75	9968.75	1	3343.75	9968.75	0	3343.75	9968.75	1	3343.75	9968.75	0	3359.38	9968.75	1	3359.38	9968.75	0	3359.38	9953.13	1	3359.38	9953.13	0	3343.75	9953.13	1	3343.75	9953.13	0	3359.38	9968.75	1	3359.38	9968.75	0	3375	9968.75	1	3375	9968.75	0	3375	9953.13	1	3375	9953.13	0	3359.38	9953.13	1	3359.38	9953.13	0	3359.38	9953.13	1	3359.38	9953.13	0	3375	9953.13	1	3375	9953.13	0	3375	9937.5	1	3375	9937.5	0	3359.38	9937.5	1	3359.38	9937.5	0	3343.75	9953.13	1	3343.75	9953.13	0	3359.38	9953.13	1	3359.38	9953.13	0	3359.38	9937.5	1	3359.38	9937.5	0	3343.75	9937.5	1	3343.75	9937.5	0	3312.5	9968.75	1	3312.5	9968.75	0	3343.75	9968.75	1	3343.75	9968.75	0	3343.75	9937.5	1	3343.75	9937.5	0	3312.5	9937.5	1	3312.5	9937.5	0	3312.5	9937.5	1	3312.5	9937.5	0	3343.75	9937.5	1	3343.75	9937.5	0	3343.75	9906.25	1	3343.75	9906.25	0	3312.5	9906.25	1	3312.5	9906.25	0	3343.75	9937.5	1	3343.75	9937.5	0	3359.38	9937.5	1	3359.38	9937.5	0	3359.38	9921.88	1	3359.38	9921.88	0	3343.75	9921.88	1	3343.75	9921.88	0	3359.38	9937.5	1	3359.38	9937.5	0	3375	9937.5	1	3375	9937.5	0	3375	9921.88	1	3375	9921.88	0	3359.38	9921.88	1	3359.38	9921.88	0	3359.38	9921.88	1	3359.38	9921.88	0	3375	9921.88	1	3375	9921.88	0	3375	9906.25	1	3375	9906.25	0	3359.38	9906.25	1	3359.38	9906.25	0	3343.75	9921.88	1	3343.75	9921.88	0	3359.38	9921.88	1	3359.38	9921.88	0	3359.38	9906.25	1	3359.38	9906.25	0	3343.75	9906.25	1	3343.75	9906.25	0	3343.75	9906.25	1	3343.75	9906.25	0	3359.38	9906.25	1	3359.38	9906.25	0	3359.38	9890.63	1	3359.38	9890.63	0	3343.75	9890.63	1	3343.75	9890.63	0	3359.38	9906.25	1	3359.38	9906.25	0	3375	9906.25	1	3375	9906.25	0	3375	9890.63	1	3375	9890.63	0	3359.38	9890.63	1	3359.38	9890.63	0	3359.38	9890.63	1	3359.38	9890.63	0	3375	9890.63	1	3375	9890.63	0	3375	9875	1	3375	9875	0	3359.38	9875	1	3359.38	9875	0	3343.75	9890.63	1	3343.75	9890.63	0	3359.38	9890.63	1	3359.38	9890.63	0	3359.38	9875	1	3359.38	9875	0	3343.75	9875	1	3343.75	9875	0	3312.5	9906.25	1	3312.5	9906.25	0	3343.75	9906.25	1	3343.75	9906.25	0	3343.75	9875	1	3343.75	9875	0	3312.5	9875	1	3312.5	9875	0	3250	9937.5	1	3250	9937.5	0	3312.5	9937.5	1	3312.5	9937.5	0	3312.5	9875	1	3312.5	9875	0	3250	9875	1	3250	9875	0	3375	10000	1	3375	10000	0	3406.25	10000	1	3406.25	10000	0	3406.25	9968.75	1	3406.25	9968.75	0	3375	9968.75	1	3375	9968.75	0	3406.25	10000	1	3406.25	10000	0	3437.5	10000	1	3437.5	10000	0	3437.5	9968.75	1	3437.5	9968.75	0	3406.25	9968.75	1	3406.25	9968.75	0	3406.25	9968.75	1	3406.25	9968.75	0	3437.5	9968.75	1	3437.5	9968.75	0	3437.5	9937.5	1	3437.5	9937.5	0	3406.25	9937.5	1	3406.25	9937.5	0	3375	9968.75	1	3375	9968.75	0	3406.25	9968.75	1	3406.25	9968.75	0	3406.25	9937.5	1	3406.25	9937.5	0	3375	9937.5	1	3375	9937.5	0	3437.5	10000	1	3437.5	10000	0	3500	10000	1	3500	10000	0	3500	9937.5	1	3500	9937.5	0	3437.5	9937.5	1	3437.5	9937.5	0	3437.5	9937.5	1	3437.5	9937.5	0	3500	9937.5	1	3500	9937.5	0	3500	9875	1	3500	9875	0	3437.5	9875	1	3437.5	9875	0	3375	9937.5	1	3375	9937.5	0	3406.25	9937.5	1	3406.25	9937.5	0	3406.25	9906.25	1	3406.25	9906.25	0	3375	9906.25	1	3375	9906.25	0	3406.25	9937.5	1	3406.25	9937.5	0	3437.5	9937.5	1	3437.5	9937.5	0	3437.5	9906.25	1	3437.5	9906.25	0	3406.25	9906.25	1	3406.25	9906.25	0	3406.25	9906.25	1	3406.25	9906.25	0	3437.5	9906.25	1	3437.5	9906.25	0	3437.5	9875	1	3437.5	9875	0	3406.25	9875	1	3406.25	9875	0	3375	9906.25	1	3375	9906.25	0	3406.25	9906.25	1	3406.25	9906.25	0	3406.25	9875	1	3406.25	9875	0	3375	9875	1	3375	9875	0	3375	9875	1	3375	9875	0	3406.25	9875	1	3406.25	9875	0	3406.25	9843.75	1	3406.25	9843.75	0	3375	9843.75	1	3375	9843.75	0	3406.25	9875	1	3406.25	9875	0	3437.5	9875	1	3437.5	9875	0	3437.5	9843.75	1	3437.5	9843.75	0	3406.25	9843.75	1	3406.25	9843.75	0	3406.25	9843.75	1	3406.25	9843.75	0	3437.5	9843.75	1	3437.5	9843.75	0	3437.5	9812.5	1	3437.5	9812.5	0	3406.25	9812.5	1	3406.25	9812.5	0	3375	9843.75	1	3375	9843.75	0	3406.25	9843.75	1	3406.25	9843.75	0	3406.25	9812.5	1	3406.25	9812.5	0	3375	9812.5	1	3375	9812.5	0	3437.5	9875	1	3437.5	9875	0	3500	9875	1	3500	9875	0	3500	9812.5	1	3500	9812.5	0	3437.5	9812.5	1	3437.5	9812.5	0	3437.5	9812.5	1	3437.5	9812.5	0	3500	9812.5	1	3500	9812.5	0	3500	9750	1	3500	9750	0	3437.5	9750	1	3437.5	9750	0	3375	9812.5	1	3375	9812.5	0	3406.25	9812.5	1	3406.25	9812.5	0	3406.25	9781.25	1	3406.25	9781.25	0	3375	9781.25	1	3375	9781.25	0	3406.25	9812.5	1	3406.25	9812.5	0	3437.5	9812.5	1	3437.5	9812.5	0	3437.5	9781.25	1	3437.5	9781.25	0	3406.25	9781.25	1	3406.25	9781.25	0	3406.25	9781.25	1	3406.25	9781.25	0	3437.5	9781.25	1	3437.5	9781.25	0	3437.5	9750	1	3437.5	9750	0	3406.25	9750	1	3406.25	9750	0	3375	9781.25	1	3375	9781.25	0	3406.25	9781.25	1	3406.25	9781.25	0	3406.25	9750	1	3406.25	9750	0	3375	9750	1	3375	9750	0	3250	9875	1	3250	9875	0	3312.5	9875	1	3312.5	9875	0	3312.5	9812.5	1	3312.5	9812.5	0	3250	9812.5	1	3250	9812.5	0	3312.5	9875	1	3312.5	9875	0	3343.75	9875	1	3343.75	9875	0	3343.75	9843.75	1	3343.75	9843.75	0	3312.5	9843.75	1	3312.5	9843.75	0	3343.75	9875	1	3343.75	9875	0	3359.38	9875	1	3359.38	9875	0	3359.38	9859.38	1	3359.38	9859.38	0	3343.75	9859.38	1	3343.75	9859.38	0	3359.38	9875	1	3359.38	9875	0	3375	9875	1	3375	9875	0	3375	9859.38	1	3375	9859.38	0	3359.38	9859.38	1	3359.38	9859.38	0	3359.38	9859.38	1	3359.38	9859.38	0	3375	9859.38	1	3375	9859.38	0	3375	9843.75	1	3375	9843.75	0	3359.38	9843.75	1	3359.38	9843.75	0	3343.75	9859.38	1	3343.75	9859.38	0	3359.38	9859.38	1	3359.38	9859.38	0	3359.38	9843.75	1	3359.38	9843.75	0	3343.75	9843.75	1	3343.75	9843.75	0	3343.75	9843.75	1	3343.75	9843.75	0	3359.38	9843.75	1	3359.38	9843.75	0	3359.38	9828.13	1	3359.38	9828.13	0	3343.75	9828.13	1	3343.75	9828.13	0	3359.38	9843.75	1	3359.38	9843.75	0	3375	9843.75	1	3375	9843.75	0	3375	9828.13	1	3375	9828.13	0	3359.38	9828.13	1	3359.38	9828.13	0	3359.38	9828.13	1	3359.38	9828.13	0	3375	9828.13	1	3375	9828.13	0	3375	9812.5	1	3375	9812.5	0	3359.38	9812.5	1	3359.38	9812.5	0	3343.75	9828.13	1	3343.75	9828.13	0	3359.38	9828.13	1	3359.38	9828.13	0	3359.38	9812.5	1	3359.38	9812.5	0	3343.75	9812.5	1	3343.75	9812.5	0	3312.5	9843.75	1	3312.5	9843.75	0	3343.75	9843.75	1	3343.75	9843.75	0	3343.75	9812.5	1	3343.75	9812.5	0	3312.5	9812.5	1	3312.5	9812.5	0	3312.5	9812.5	1	3312.5	9812.5	0	3343.75	9812.5	1	3343.75	9812.5	0	3343.75	9781.25	1	3343.75	9781.25	0	3312.5	9781.25	1	3312.5	9781.25	0	3343.75	9812.5	1	3343.75	9812.5	0	3359.38	9812.5	1	3359.38	9812.5	0	3359.38	9796.88	1	3359.38	9796.88	0	3343.75	9796.88	1	3343.75	9796.88	0	3359.38	9812.5	1	3359.38	9812.5	0	3375	9812.5	1	3375	9812.5	0	3375	9796.88	1	3375	9796.88	0	3359.38	9796.88	1	3359.38	9796.88	0	3359.38	9796.88	1	3359.38	9796.88	0	3375	9796.88	1	3375	9796.88	0	3375	9781.25	1	3375	9781.25	0	3359.38	9781.25	1	3359.38	9781.25	0	3343.75	9796.88	1	3343.75	9796.88	0	3359.38	9796.88	1	3359.38	9796.88	0	3359.38	9781.25	1	3359.38	9781.25	0	3343.75	9781.25	1	3343.75	9781.25	0	3343.75	9781.25	1	3343.75	9781.25	0	3359.38	9781.25	1	3359.38	9781.25	0	3359.38	9765.63	1	3359.38	9765.63	0	3343.75	9765.63	1	3343.75	9765.63	0	3359.38	9781.25	1	3359.38	9781.25	0	3375	9781.25	1	3375	9781.25	0	3375	9765.63	1	3375	9765.63	0	3359.38	9765.63	1	3359.38	9765.63	0	3359.38	9765.63	1	3359.38	9765.63	0	3375	9765.63	1	3375	9765.63	0	3375	9750	1	3375	9750	0	3359.38	9750	1	3359.38	9750	0	3343.75	9765.63	1	3343.75	9765.63	0	3359.38	9765.63	1	3359.38	9765.63	0	3359.38	9750	1	3359.38	9750	0	3343.75	9750	1	3343.75	9750	0	3312.5	9781.25	1	3312.5	9781.25	0	3343.75	9781.25	1	3343.75	9781.25	0	3343.75	9750	1	3343.75	9750	0	3312.5	9750	1	3
[...]
<CellData Scalars="scalars">
<DataArray type="Int32" Name="nodeid" format="ascii">1	2	3	4	5	6	7	8	9	10	11	12	801	802	804	803	809	813	817	818	820	819	821	822	824	823	815	825	829	830	832	831	833	834	836	835	827	811	841	842	844	843	838	840	845	846	848	847	881	882	884	883	878	880	885	886	888	887	849	853	857	858	860	859	861	862	864	863	855	865	869	870	872	871	873	874	876	875	867	851	889	890	892	891	16	17	18	19	20	21	22	23	24	25	26	27	28	29	30	31	32	893	894	896	895	901	905	909	910	912	911	913	914	916	915	907	917	918	920	919	903	925	926	928	929	930	932	931	922	924	937	938	940	939	934	936	941	942	944	943	961	962	964	963	965	966	968	967	969	970	972	971	959	973	974	976	975	989	990	992	993	994	996	995	977	981	982	984	983	985	986	988	987	979	945	949	950	952	951	948	947	997	998	1000	1001	1002	1004	1003	36	37	38	39	40	41	42	43	44	45	46	47	48	49	50	51	52	1005	1006	1008	1007	1013	1014	1016	1015	1021	1022	1024	1023	1029	1030	1032	1031	1026	1037	1038	1040	1039	1033	1034	1036	1035	1041	1045	1046	1048	1047	1049	1050	1052	1051	1043	1019	1053	1057	1058	1060	1059	1056	1055	1011	1069	1070	1072	1071	1066	1068	1073	1074	1076	1077	1078	1080	1079	1062	1129	1130	1132	1133	1134	1136	1135	1089	1090	1092	1091	1093	1094	1096	1095	1097	1098	1100	1099	1087	1101	1102	1104	1105	1106	1108	1107	1117	1118	1120	1119	1121	1122	1124	1123	1125	1126	1128	1127	1115	1109	1110	1112	1111	1137	1138	1140	1139	57	58	59	60	61	62	63	64	65	66	67	68	69	70	71	72	73	1141	1142	1144	1143	1149	1153	1157	1158	1160	1159	1161	1162	1164	1163	1155	1165	1166	1168	1167	1151	1173	1174	1176	1177	1178	1180	1179	1170	1172	1185	1186	1188	1187	1182	1184	1189	1190	1192	1191	1209	1210	1212	1211	1213	1214	1216	1215	1217	1218	1220	1219	1207	1221	1222	1224	1223	1237	1238	1240	1239	1225	1229	1230	1232	1231	1233	1234	1236	1235	1227	1193	1197	1198	1200	1199	1196	1195	1241	1242	1244	1245	1246	1248	1247	77	78	79	80	81	82	83	84	85	86	87	88	89	90	91	92	93	1249	1250	1252	1251	1257	1258	1261	1262	1264	1263	1259	1269	1273	1274	1276	1275	1277	1278	1280	1279	1271	1281	1282	1284	1283	1301	1302	1304	1303	1285	1289	1290	1292	1291	1297	1298	1300	1299	1293	1294	1296	1295	1329	1330	1332	1331	1326	1328	1333	1334	1336	1335	1322	1324	1341	1342	1344	1343	1338	1340	1345	1346	1348	1347	1305	1309	1310	1312	1311	1313	1314	1317	1318	1320	1319	1315	1307	1353	1354	1356	1355	1350	1352	1351	97	98	99	100	101	102	103	104	105	106	107	108	109	110	111	112	1357	1358	1361	1362	1364	1363	1359	1365	1369	1370	1373	1374	1376	1375	1371	1401	1402	1405	1406	1408	1407	1403	1409	1413	1414	1416	1415	1421	1422	1424	1423	1417	1418	1420	1419	1441	1442	1444	1443	1429	1430	1432	1431	1433	1434	1436	1435	1428	1437	1438	1440	1439	1377	1378	1385	1386	1393	1394	1396	1395	1389	1390	1392	1391	1381	1382	1384	1383	1453	1454	1456	1455	1457	1461	1462	1464	1463	1469	1470	1472	1471	1465	1466	1468	1467	1485	1486	1488	1487	1482	1484	1489	1490	1492	1491	1473	1474	1477	1478	1480	1479	1475	1497	1498	1500	1499	1494	1496	1495	1521	1522	1524	1523	1509	1510	1512	1511	1513	1514	1516	1515	1508	1507	1517	1518	1520	1519	1504	1503	1525	1526	1528	1527	117	118	119	120	121	122	123	124	125	126	127	128	129	130	131	1529	1530	1532	1531	1533	1537	1541	1542	1544	1543	1545	1549	1550	1552	1551	1553	1554	1556	1555	1547	1539	1565	1566	1568	1567	1569	1573	1574	1576	1575	1581	1582	1584	1583	1577	1578	1580	1579	1593	1594	1596	1595	1590	1592	1597	1598	1600	1599	1585	1586	1588	1587	1557	1558	1560	1559	1609	1613	1614	1616	1615	1621	1622	1624	1623	1617	1618	1620	1619	1629	1630	1632	1631	1626	1628	1627	1608	1637	1638	1640	1639	1634	1636	1635	1645	1646	1648	1647	1642	1644	1643	1604	1653	1654	1656	1655	1650	1652	1651	1657	1658	1660	1659	136	137	138	139	140	141	142	143	144	145	146	147	148	149	150	151	1661	1662	1664	1663	1669	1670	1672	1671	1677	1678	1680	1679	1685	1686	1688	1687	1682	1684	1689	1690	1692	1691	1709	1710	1712	1711	1706	1708	1707	1693	1697	1698	1700	1699	1701	1702	1704	1703	1695	1721	1725	1726	1728	1727	1729	1730	1732	1731	1723	1733	1734	1736	1735	1749	1750	1752	1751	1737	1741	1742	1744	1743	1745	1746	1748	1747	1739	1713	1714	1716	1715	1757	1758	1760	1759	1754	1756	1761	1762	1764	1763	155	1765	1766	1768	1767	157	158	159	160	161	162	163	164	165	166	167	168	169	170	171	1769	1770	1772	1771	1777	1778	1780	1779	1785	1789	1790	1792	1791	1793	1794	1796	1795	1787	1797	1798	1800	1799	1813	1814	1816	1817	1818	1820	1819	1801	1805	1806	1808	1807	1809	1810	1812	1811	1803	1829	1830	1832	1831	1837	1838	1840	1839	1834	1836	1841	1842	1844	1843	1853	1854	1856	1855	1857	1858	1860	1859	1861	1862	1864	1863	1851	1845	1846	1848	1847	1821	1822	1824	1823	1869	1870	1872	1871	1866	1885	1886	1888	1887	1873	1874	1876	1877	1878	1880	1881	1882	1884	1883	1889	1890	1892	1891	1897	1898	1901	1902	1905	1906	1908	1907	1903	1899	1909	1910	1912	1913	1914	1916	1917	1918	1920	1919	1941	1942	1944	1943	1938	1940	1939	1934	1936	1935	1921	1925	1929	1930	1932	1931	1928	1927	1924	1923	1945	1946	1948	1947	178	179	180	181	182	183	184	185	186	187	188	189	190	191	192	1949	1953	1957	1958	1960	1959	1956	1955	1952	1951	1973	1974	1976	1975	1977	1978	1980	1979	1981	1982	1984	1983	1971	1985	1986	1988	1989	1990	1992	1991	2001	2002	2004	2003	2005	2006	2008	2007	2000	1999	1993	1994	1996	1995	2013	2014	2016	2015	2010	2033	2034	2036	2037	2038	2040	2039	2021	2022	2024	2023	2018	2029	2030	2032	2031	2025	2026	2028	2027	2049	2050	2052	2051	2057	2058	2060	2059	2061	2062	2064	2063	2056	2055	2048	2047	2041	2042	2044	2043	2069	2070	2072	2073	2074	2076	2075	2066	2121	2122	2124	2123	2085	2086	2088	2087	2082	2093	2094	2096	2095	2089	2090	2092	2091	2097	2098	2100	2099	2113	2114	2116	2117	2118	2120	2119	2101	2105	2106	2108	2107	2109	2110	2112	2111	2103	2125	2126	2128	2127	197	198	199	200	201	202	203	204	205	206	207	208	209	210	211	2129	2130	2132	2131	2137	2138	2141	2142	2145	2146	2148	2147	2143	2139	2149	2150	2152	2153	2154	2156	2157	2158	2160	2159	2181	2182	2184	2183	2178	2180	2179	2174	2176	2175	2161	2165	2169	2170	2172	2171	2168	2167	2164	2163	2185	2189	2190	2192	2191	2188	2187	2201	2202	2204	2203	2209	2210	2212	2211	2206	2217	2218	2220	2219	2213	2214	2216	2215	2221	2225	2226	2228	2227	2229	2230	2232	2231	2223	2199	2237	2238	2240	2239	2234	2236	2241	2242	2244	2245	2246	2248	2247	2265	2266	2268	2267	2262	2273	2274	2276	2275	2269	2270	2272	2271	2277	2278	2280	2279	2293	2294	2296	2297	2298	2300	2299	2281	2285	2286	2288	2287	2289	2290	2292	2291	2283	2249	2253	2254	2256	2255	2252	2251	2301	2302	2304	2305	2306	2308	2307	217	218	219	220	221	222	223	224	225	226	227	228	229	230	231	232	2309	2310	2312	2311	2313	2314	2316	2315	2321	2322	2324	2323	2329	2330	2332	2331	2337	2338	2340	2339	2334	2336	2341	2342	2344	2343	2353	2354	2356	2355	2350	2352	2357	2358	2360	2359	2345	2346	2348	2347	2369	2370	2372	2371	2377	2378	2380	2379	2374	2385	2386	2388	2387	2381	2382	2384	2383	2389	2393	2394	2396	2395	2397	2398	2400	2399	2391	2367	2361	2362	2364	2363	2405	2406	2408	2407	2402	2404	2413	2414	2416	2415	2410	2412	2417	2418	2420	2421	2422	2424	2423	237	238	239	240	241	242	243	244	245	246	247	248	249	250	251	252	253	254	2425	2429	2433	2434	2436	2435	2432	2431	2437	2438	2440	2439	2427	2453	2454	2456	2455	2450	2461	2462	2464	2463	2457	2458	2460	2459	2465	2466	2468	2467	2481	2482	2484	2485	2486	2488	2487	2469	2473	2474	2476	2475	2477	2478	2480	2479	2471	2489	2490	2492	2491	2525	2526	2528	2529	2530	2532	2531	2522	2549	2550	2552	2551	2537	2538	2540	2539	2541	2542	2544	2543	2545	2546	2548	2547	2535	2497	2498	2500	2499	2505	2506	2508	2507	2509	2510	2512	2511	2513	2514	2516	2515	2503	2517	2518	2520	2519	2495	2553	2554	2556	2557	2558	2560	2559	258	259	260	261	262	263	264	265	266	267	268	269	270	271	272	273	274	2561	2562	2564	2563	2569	2570	2572	2571	2577	2581	2582	2584	2583	2580	2579	2589	2590	2592	2591	2586	2597	2598	2600	2599	2593	2594	2596	2595	2601	2605	2606	2608	2607	2604	2603	2575	2609	2610	2612	2611	2567	2621	2622	2624	2623	2618	2641	2642	2644	2643	2629	2630	2632	2631	2626	2637	2638	2640	2639	2633	2634	2636	2635	2645	2646	2648	2647	2689	2690	2692	2691	2653	2657	2658	2660	2659	2661	2662	2664	2663	2655	2665	2666	2668	2667	2681	2682	2684	2683	2678	2680	2685	2686	2688	2687	2669	2673	2674	2676	2675	2672	2671	2693	2694	2696	2695	279	280	281	282	283	284	285	286	287	288	289	290	291	292	293	294	2697	2698	2701	2702	2704	2703	2699	2709	2710	2712	2711	2713	2714	2721	2722	2729	2730	2732	2731	2725	2726	2728	2727	2717	2718	2720	2719	2765	2769	2770	2772	2771	2777	2778	2780	2779	2773	2774	2776	2775	2785	2786	2788	2787	2782	2784	2783	2764	2793	2794	2796	2795	2790	2792	2791	2733	2737	2738	2740	2739	2745	2749	2750	2752	2751	2757	2758	2760	2759	2753	2754	2756	2755	2741	2742	2744	2743	2805	2806	2809	2810	2812	2811	2807	2817	2818	2820	2819	2814	2816	2821	2822	2824	2823	2841	2842	2844	2843	2829	2830	2832	2831	2833	2834	2836	2835	2828	2837	2838	2840	2839	2845	2846	2848	2847	2800	2853	2854	2856	2855	2850	2852	2851	2857	2858	2860	2859	299	300	301	302	303	304	305	306	307	308	309	310	311	312	313	314	2861	2865	2866	2868	2867	2869	2870	2872	2871	2863	2881	2885	2886	2888	2887	2889	2890	2892	2891	2883	2897	2898	2900	2899	2894	2896	2901	2902	2904	2903	2913	2914	2916	2915	2910	2912	2917	2918	2920	2919	2905	2906	2908	2907	2921	2922	2924	2923	2961	2962	2964	2963	2958	2981	2982	2984	2983	2969	2970	2972	2971	2966	2977	2978	2980	2979	2973	2974	2976	2975	2929	2930	2932	2931	2937	2938	2940	2939	2941	2942	2944	2943	2945	2946	2948	2947	2935	2949	2953	2954	2956	2955	2952	2951	2927	2985	2986	2988	2989	2990	2992	2991	318	319	320	321	322	323	324	325	326	327	328	329	330	331	332	2993	2994	2996	2995	2997	2998	3005	3006	3008	3007	3001	3002	3004	3003	3009	3010	3017	3018	3020	3019	3013	3014	3016	3015	3025	3026	3028	3027	3033	3037	3038	3040	3039	3041	3042	3044	3043	3035	3045	3046	3048	3047	3061	3062	3064	3063	3049	3053	3054	3056	3055	3057	3058	3060	3059	3051	3093	3094	3096	3095	3097	3098	3100	3099	3092	3101	3102	3104	3103	3105	3106	3108	3107	3088	3113	3114	3116	3115	3110	3112	3111	3065	3069	3070	3072	3071	3073	3077	3078	3080	3079	3081	3082	3084	3083	3075	3067	3121	3122	3124	3123	3118	3120	3125	3126	3128	3127	338	339	340	341	342	343	344	345	346	347	348	349	350	351	3129	3130	3132	3131	3133	3137	3138	3141	3142	3144	3143	3139	3157	3158	3160	3159	3161	3165	3166	3168	3167	3173	3174	3176	3175	3169	3170	3172	3171	3197	3198	3200	3199	3194	3196	3195	3177	3181	3182	3184	3183	3189	3190	3192	3191	3185	3186	3188	3187	3145	3146	3149	3150	3152	3151	3147	3209	3210	3212	3211	3213	3214	3217	3218	3220	3219	3215	3241	3242	3244	3243	3245	3246	3248	3247	3240	3239	3221	3225	3226	3228	3227	3233	3234	3236	3235	3229	3230	3232	3231	3253	3254	3261	3262	3264	3263	3257	3258	3260	3259	3265	3266	3273	3274	3276	3275	3269	3270	3272	3271	3281	3282	3284	3283	3277	3278	3280	3279	3297	3298	3300	3299	3293	3294	3296	3295	3290	3292	3291	3286	3288	3287	3309	3310	3317	3318	3320	3319	3313	3314	3316	3315	3321	3322	3329	3330	3332	3331	3325	3326	3328	3327	3337	3338	3340	3339	3333	3334	3336	3335	3345	3346	3353	3354	3356	3355	3349	3350	3352	3351	3357	3358	3365	3366	3368	3367	3361	3362	3364	3363	3373	3374	3376	3375	3369	3370	3372	3371	3381	3382	3384	3383	3377	3378	3380	3379	3393	3394	3401	3402	3404	3403	3397	3398	3400	3399	3409	3410	3412	3411	3413	3414	3416	3415	3408	3417	3418	3420	3419	3425	3426	3428	3427	3421	3422	3424	3423	3433	3434	3436	3435	3430	3432	3431	3388	3437	3438	3440	3439	3441	3442	3444	3443	358	359	360	361	362	363	364	365	366	367	368	369	370	371	3445	3449	3450	3452	3451	3453	3454	3456	3455	3447	3465	3466	3468	3467	3469	3473	3474	3476	3475	3481	3482	3484	3483	3477	3478	3480	3479	3497	3498	3500	3499	3494	3496	3501	3502	3504	3503	3485	3486	3489	3490	3492	3491	3487	3513	3514	3516	3515	3510	3512	3511	3506	3508	3507	3553	3554	3556	3555	3521	3525	3526	3528	3527	3529	3530	3532	3531	3523	3533	3534	3536	3535	3549	3550	3552	3551	3537	3541	3542	3544	3543	3545	3546	3548	3547	3539	3557	3558	3560	3559	3561	3562	3564	3563	3565	3566	3568	3567	377	378	379	380	381	382	383	384	385	386	387	388	389	390	391	3569	3573	3577	3578	3580	3579	3581	3582	3584	3583	3575	3585	3589	3590	3592	3591	3588	3587	3571	3601	3605	3606	3608	3607	3613	3614	3616	3615	3609	3610	3612	3611	3617	3618	3620	3619	3600	3625	3626	3628	3627	3622	3624	3629	3630	3632	3631	3633	3634	3636	3635	3677	3678	3680	3679	3645	3646	3648	3647	3642	3653	3654	3656	3655	3649	3650	3652	3651	3657	3658	3660	3659	3673	3674	3676	3675	3661	3665	3666	3668	3667	3669	3670	3672	3671	3663	3685	3686	3689	3690	3693	3694	3696	3695	3691	3687	3697	3698	3700	3701	3702	3704	3705	3706	3708	3707	3729	3730	3732	3731	3726	3728	3727	3722	3724	3723	3709	3713	3717	3718	3720	3719	3716	3715	3712	3711	3733	3734	3736	3735	396	397	398	399	400	401	402	403	404	405	406	407	408	409	410	411	3737	3741	3742	3744	3743	3745	3746	3748	3747	3739	3757	3761	3762	3764	3763	3765	3766	3768	3767	3759	3769	3770	3772	3773	3774	3776	3775	3785	3786	3788	3787	3782	3784	3789	3790	3792	3791	3777	3778	3780	3779	3793	3794	3796	3795	3829	3830	3832	3833	3834	3836	3835	3826	3853	3854	3856	3855	3841	3842	3844	3843	3838	3849	3850	3852	3851	3845	3846	3848	3847	3801	3802	3804	3803	3809	3810	3812	3811	3813	3814	3816	3815	3817	3818	3820	3819	3807	3821	3822	3824	3823	3799	3857	3858	3860	3861	3862	3864	3863	415	416	417	418	419	420	421	422	423	424	425	426	427	428	429	430	431	3865	3866	3868	3867	3873	3874	3876	3875	3881	3885	3886	3888	3887	3884	3883	3893	3894	3896	3895	3890	3901	3902	3904	3903	3897	3898	3900	3899	3905	3909	3910	3912	3911	3908	3907	3879	3913	3914	3916	3915	3871	3925	3926	3928	3927	3922	3945	3946	3948	3947	3933	3934	3936	3935	3930	3941	3942	3944	3943	3937	3938	3940	3939	3949	3950	3952	3951	3997	3998	4000	4001	4002	4004	4005	4006	4008	4007	3957	3961	3962	3964	3963	3960	3959	3969	3970	3972	3971	3966	3968	3973	3974	3976	3975	3985	3986	3988	3987	3989	3990	3992	3991	3993	3994	3996	3995	3983	3977	3978	3980	3979	4009	4010	4012	4011	436	437	438	439	440	441	442	443	444	445	446	447	448	449	450	451	452	4013	4014	4016	4015	4021	4025	4026	4028	4027	4024	4023	4037	4038	4040	4039	4041	4042	4044	4043	4045	4046	4048	4047	4035	4049	4050	4052	4051	4065	4066	4068	4067	4062	4064	4069	4070	4072	4071	4053	4057	4058	4060	4059	4056	4055	4081	4082	4084	4083	4089	4090	4092	4091	4086	4097	4098	4100	4099	4093	4094	4096	4095	4101	4105	4106	4108	4107	4109	4110	4112	4111	4103	4079	4073	4074	4076	4075	4117	4118	4120	4119	4114	4116	4125	4126	4128	4127	4122	4124	4129	4130	4132	4133	4134	4136	4135	456	457	458	459	460	461	462	463	464	465	466	467	468	469	470	471	472	473	4137	4141	4145	4146	4148	4147	4149	4150	4152	4151	4143	4153	4154	4156	4155	4139	4169	4170	4172	4171	4166	4168	4173	4174	4176	4175	4162	4193	4194	4196	4195	4181	4182	4184	4183	4185	4186	4188	4187	4189	4190	4192	4191	4179	4197	4198	4200	4199	4245	4246	4248	4249	4250	4252	4251	4205	4209	4210	4212	4211	4208	4207	4217	4218	4220	4219	4214	4216	4221	4222	4224	4223	4233	4234	4236	4235	4237	4238	4240	4239	4241	4242	4244	4243	4231	4225	4226	4228	4227	4253	4254	4256	4255	477	478	479	480	481	482	483	484	485	486	487	488	489	4257	4258	4260	4259	491	492	493	4261	4262	4264	4263	4269	4273	4277	4278	4280	4279	4276	4275	4281	4282	4284	4283	4271	4293	4294	4296	4295	4290	4292	4297	4298	4300	4299	4286	4317	4318	4320	4319	4305	4306	4308	4307	4302	4313	4314	4316	4315	4309	4310	4312	4311	4329	4333	4334	4336	4335	4337	4338	4340	4339	4331	4341	4342	4344	4343	4357	4358	4360	4359	4361	4362	4364	4363	4365	4366	4368	4367	4355	4345	4349	4350	4352	4351	4348	4347	4321	4322	4324	4323	4373	4374	4376	4375	4370	4393	4394	4396	4395	4377	4378	4389	4390	4392	4391	4381	4382	4384	4385	4386	4388	4387	4397	4398	4400	4399	498	499	500	501	502	503	504	505	506	507	508	4401	4402	4404	4403	4409	4410	4413	4414	4417	4418	4420	4419	4415	4411	4421	4422	4424	4425	4426	4428	4429	4430	4432	4431	4453	4454	4456	4455	4450	4452	4451	4446	4448	4447	4433	4437	4441	4442	4444	4443	4440	4439	4436	4435	4457	4458	4460	4459	512	513	514	4461	4465	4469	4470	4472	4471	4468	4467	4464	4463	4485	4486	4488	4487	4489	4490	4492	4491	4484	4483	4497	4498	4500	4499	4494	4505	4506	4508	4507	4501	4502	4504	4503	4509	4513	4514	4516	4515	4512	4511	4479	4521	4522	4524	4523	4518	4541	4542	4544	4545	4546	4548	4547	4529	4530	4532	4531	4526	4537	4538	4540	4539	4533	4534	4536	4535	4557	4558	4560	4559	4565	4566	4568	4567	4569	4570	4572	4571	4573	4574	4576	4575	4563	4577	4578	4580	4579	4555	4549	4550	4552	4551	4585	4586	4588	4587	4582	4584	4593	4594	4596	4597	4598	4600	4599	4590	4592	4605	4606	4608	4607	4602	4604	4609	4610	4612	4611	518	519	520	521	522	523	524	525	526	527	528	529	4613	4614	4616	4615	531	532	533	534	535	4617	4621	4625	4626	4628	4627	4629	4630	4632	4631	4623	4633	4637	4638	4640	4639	4636	4635	4619	4653	4654	4656	4655	4650	4652	4657	4658	4660	4659	4646	4648	4665	4666	4668	4667	4662	4664	4669	4670	4672	4671	4642	4713	4714	4716	4715	4681	4682	4684	4683	4678	4689	4690	4692	4691	4685	4686	4688	4687	4693	4694	4696	4695	4709	4710	4712	4711	4697	4701	4702	4704	4703	4705	4706	4708	4707	4699	4717	4718	4720	4719	539	540	541	542	543	544	545	4721	4722	4724	4723	547	548	549	550	551	552	553	554	4725	4726	4728	4727	4729	4733	4734	4736	4735	4737	4738	4740	4739	4731	4749	4753	4754	4756	4755	4757	4758	4760	4759	4751	4761	4762	4764	4763	4777	4778	4780	4779	4765	4769	4770	4772	4771	4773	4774	4776	4775	4767	4781	4782	4784	4783	4829	4830	4832	4831	4789	4793	4794	4796	4795	4797	4798	4800	4799	4791	4801	4802	4804	4803	4821	4822	4824	4823	4818	4820	4825	4826	4828	4827	4805	4809	4810	4812	4811	4813	4814	4816	4815	4807	4833	4834	4836	4835	559	560	561	562	563	564	4837	4838	4840	4839	4845	4846	4849	4850	4853	4854	4856	4855	4851	4847	4857	4858	4860	4861	4862	4864	4865	4866	4868	4867	4889	4890	4892	4891	4886	4888	4887	4882	4884	4883	4869	4873	4877	4878	4880	4879	4876	4875	4872	4871	4893	4894	4896	4895	568	569	570	571	572	4897	4898	4900	4899	4901	4902	4905	4906	4908	4907	4903	4909	4913	4914	4916	4915	4925	4929	4930	4932	4931	4941	4945	4946	4948	4947	4953	4954	4956	4955	4949	4950	4952	4951	4933	4934	4937	4938	4940	4939	4935	4917	4918	4921	4922	4924	4923	4919	4961	4962	4964	4963	4965	4969	4970	4972	4971	4977	4981	4982	4984	4983	4989	4990	4992	4991	4985	4986	4988	4987	4973	4974	4976	4975	5041	5042	5044	5043	5045	5046	5048	5047	5040	5049	5050	5052	5051	5057	5058	5060	5059	5054	5056	5055	5036	5061	5062	5064	5063	4997	4998	5000	4999	5001	5002	5009	5010	5012	5011	5005	5006	5008	5007	5029	5030	5032	5031	5026	5028	5027	5017	5018	5020	5019	5021	5022	5024	5023	5016	5015	5077	5078	5080	5079	5081	5082	5084	5083	5076	5085	5086	5088	5087	5089	5090	5092	5091	5072	5097	5098	5100	5099	5094	5096	5095	5101	5102	5104	5103	5068	5105	5106	5108	5107	5109	5110	5112	5111	579	580	581	582	583	584	585	5113	5114	5116	5115	587	588	589	590	591	5117	5118	5120	5119	5121	5125	5126	5129	5130	5132	5131	5127	5141	5142	5144	5143	5145	5149	5150	5152	5151	5157	5158	5160	5159	5153	5154	5156	5155	5177	5178	5180	5179	5174	5176	5175	5161	5165	5166	5168	5167	5169	5170	5172	5171	5163	5133	5134	5136	5135	5185	5186	5197	5198	5205	5206	5208	5207	5201	5202	5204	5203	5189	5190	5193	5194	5196	5195	5191	5213	5214	5216	5215	5217	5218	5220	5219	5241	5242	5244	5243	5245	5246	5248	5247	5240	5239	5221	5225	5226	5228	5227	5233	5234	5236	5235	5229	5230	5232	5231	5273	5274	5276	5275	5270	5272	5271	5257	5258	5260	5259	5261	5262	5264	5263	5256	5255	5265	5266	5268	5267	5252	5251	5285	5286	5293	5294	5296	5295	5289	5290	5292	5291	5297	5301	5302	5304	5303	5309	5310	5312	5311	5305	5306	5308	5307	5321	5322	5324	5323	5317	5318	5320	5319	5314	5316	5315	5333	5334	5336	5335	5337	5338	5340	5339	5332	5331	5341	5342	5344	5343	5328	5327	5280	5345	5346	5348	5347	5353	5354	5356	5355	5357	5358	5360	5359	5352	5351	5361	5362	5364	5363	598	599	600	601	602	603	604	605	606	607	608	609	610	611	5365	5366	5369	5370	5372	5371	5367	5377	5381	5382	5384	5383	5385	5389	5390	5392	5391	5393	5394	5396	5395	5387	5379	5405	5406	5408	5407	5409	5410	5412	5411	5404	5413	5414	5416	5415	5417	5418	5420	5419	5400	5425	5426	5428	5427	5422	5424	5423	5473	5474	5476	5475	5470	5472	5471	5433	5434	5436	5435	5441	5442	5444	5443	5445	5446	5448	5447	5440	5449	5450	5452	5451	5461	5462	5464	5463	5458	5460	5465	5466	5468	5467	5453	5454	5456	5455	5481	5482	5484	5483	5478	5480	5479	5485	5486	